 Gaussian 09, Revision A.02,
 Gaussian 09:  EM64L-G09RevA.02 11-Jun-2009

 -------------------------------------------------------------------
 #HF/6-31G* SCF=tight Test Pop=MK iop(6/33=2) NoSymm iop(6/42=6) opt
 -------------------------------------------------------------------

 ---------------------
 remark line goes here
 ---------------------
 Symbolic Z-matrix:
 Charge = -1 Multiplicity = 1

 SCF Done:  E(RHF) =  -422.714043545     A.U. after   10 cycles
 SCF Done:  E(RHF) =  -422.725145025     A.U. after    9 cycles
 SCF Done:  E(RHF) =  -422.725145764     A.U. after    6 cycles
 Optimization completed.
    -- Stationary point found.

                          Input orientation:
 ---------------------------------------------------------------------
 Center     Atomic      Atomic             Coordinates (Angstroms)
 Number     Number       Type             X           Y           Z
 ---------------------------------------------------------------------
      1          5           0       -0.000005    0.000169    0.000005
      2          9           0       -0.263417   -1.016848   -0.915393
      3          9           0       -0.598832    1.181564   -0.433146
      4          9           0        1.377000    0.187825    0.102390
      5          9           0       -0.514746   -0.351711    1.246144
 ---------------------------------------------------------------------

 Alpha  occ. eigenvalues --  -26.02772 -26.02771 -26.02770 -26.02768  -7.47704
 Alpha  occ. eigenvalues --   -1.37752  -1.31524  -1.31522  -1.31520  -0.56966
 Alpha  occ. eigenvalues --   -0.49915  -0.49914  -0.49914  -0.41547  -0.41547
 Alpha  occ. eigenvalues --   -0.37783  -0.37783  -0.37782  -0.35089  -0.35089
 Alpha  occ. eigenvalues --   -0.35088
 Alpha virt. eigenvalues --    0.63066   0.65807   0.65807   0.65807   0.94238
 Alpha virt. eigenvalues --    0.94241   0.94244   1.02926   1.56885   1.56886
 Alpha virt. eigenvalues --    1.56886   1.57931   1.57931   1.69869   1.80686

 Mulliken atomic charges:
              1
     1  B    0.957477
     2  F   -0.489337
     3  F   -0.489416
     4  F   -0.489395
     5  F   -0.489330
 Sum of Mulliken atomic charges =  -1.00000

 Dipole moment (field-independent basis, Debye):
    X=             -0.0001    Y=             -0.0014    Z=              0.0001  Tot=              0.0015
 Quadrupole moment (field-independent basis, Debye-Ang):
   XX=            -29.8042   YY=            -29.8041   ZZ=            -29.8035
   XY=              0.0002   XZ=             -0.0002   YZ=              0.0002

 Normal termination of Gaussian 09 at Thu Apr 12 06:42:01 2018.
