 Gaussian 09, Revision A.02,
 Gaussian 09:  EM64L-G09RevA.02 11-Jun-2009

 -------------------------------------------------------------------
 #HF/6-31G* SCF=tight Test Pop=MK iop(6/33=2) NoSymm iop(6/42=6) opt
 -------------------------------------------------------------------

 ---------------------
 remark line goes here
 ---------------------
 Symbolic Z-matrix:
 Charge = -1 Multiplicity = 1

 SCF Done:  E(RHF) =  -420.223210064     A.U. after   30 cycles
 SCF Done:  E(RHF) =  -420.277646180     A.U. after   19 cycles
 SCF Done:  E(RHF) =  -420.297616177     A.U. after   17 cycles
 SCF Done:  E(RHF) =  -420.300759986     A.U. after   16 cycles
 SCF Done:  E(RHF) =  -420.304225678     A.U. after   16 cycles
 SCF Done:  E(RHF) =  -420.310741399     A.U. after   17 cycles
 SCF Done:  E(RHF) =  -420.315796187     A.U. after   18 cycles
 SCF Done:  E(RHF) =  -420.330696226     A.U. after   15 cycles
 SCF Done:  E(RHF) =  -420.368042374     A.U. after   15 cycles
 SCF Done:  E(RHF) =  -420.375906246     A.U. after   14 cycles
 SCF Done:  E(RHF) =  -420.401571349     A.U. after   16 cycles
 SCF Done:  E(RHF) =  -420.405500476     A.U. after   13 cycles
 SCF Done:  E(RHF) =  -420.410081133     A.U. after   15 cycles
 SCF Done:  E(RHF) =  -420.411815661     A.U. after   12 cycles
 SCF Done:  E(RHF) =  -420.412223430     A.U. after   12 cycles
 SCF Done:  E(RHF) =  -420.412174914     A.U. after   12 cycles
 SCF Done:  E(RHF) =  -420.412315896     A.U. after   11 cycles
 SCF Done:  E(RHF) =  -420.412318088     A.U. after    9 cycles
 SCF Done:  E(RHF) =  -420.412318482     A.U. after    8 cycles
 SCF Done:  E(RHF) =  -420.412318581     A.U. after    8 cycles
 Optimization completed.
    -- Stationary point found.

                          Input orientation:
 ---------------------------------------------------------------------
 Center     Atomic      Atomic             Coordinates (Angstroms)
 Number     Number       Type             X           Y           Z
 ---------------------------------------------------------------------
      1          6           0        0.280533    0.097291   -1.593937
      2          6           0        1.307830   -0.019151   -0.769807
      3          6           0        0.445541    2.138046   -0.448255
      4          7           0       -0.375632    1.330051   -1.443871
      5          1           0       -0.032278   -0.617253   -2.340947
      6          1           0        1.998922   -0.846383   -0.712157
      7          1           0        1.069220    2.753989   -1.114217
      8          7           0        1.442835    1.113135    0.064251
      9          6           0        1.330256    0.791201    1.465554
     10          1           0        0.374408    0.334989    1.746334
     11          1           0        2.121040    0.095514    1.764012
     12          1           0        1.444134    1.698243    2.048603
     13          6           0       -1.799998    1.256962   -1.217255
     14          1           0       -2.198331    2.264596   -1.310978
     15          1           0       -2.254600    0.668688   -2.021775
     16          6           0       -2.258415    0.689265    0.131143
     17          1           0       -1.895639   -0.331662    0.240473
     18          1           0       -1.780664    1.280178    0.904148
     19          6           0       -3.778395    0.708941    0.305673
     20          1           0       -4.142916    1.729206    0.192525
     21          1           0       -4.250643    0.130561   -0.489049
     22          6           0       -4.237955    0.163210    1.659001
     23          1           0       -3.810900    0.740733    2.474361
     24          1           0       -5.321384    0.193370    1.761268
     25          1           0       -3.921969   -0.868723    1.790903
 ---------------------------------------------------------------------

 Alpha  occ. eigenvalues --  -15.34236 -15.34136 -11.10578 -11.09651 -11.07565
 Alpha  occ. eigenvalues --  -11.06462 -11.05773 -11.05750 -11.05236 -10.97143
 Alpha  occ. eigenvalues --   -1.06689  -0.97899  -0.93363  -0.84344  -0.79485
 Alpha  occ. eigenvalues --   -0.72889  -0.70957  -0.65820  -0.56786  -0.56167
 Alpha  occ. eigenvalues --   -0.51112  -0.48809  -0.46895  -0.44634  -0.43295
 Alpha  occ. eigenvalues --   -0.41109  -0.40678  -0.38982  -0.37844  -0.36389
 Alpha  occ. eigenvalues --   -0.34936  -0.33285  -0.32428  -0.29032  -0.28136
 Alpha  occ. eigenvalues --   -0.24833  -0.16961  -0.10630  -0.03877
 Alpha virt. eigenvalues --    0.34822   0.37769   0.39497   0.40215   0.40739
 Alpha virt. eigenvalues --    0.42074   0.43415   0.44522   0.44901   0.46817
 Alpha virt. eigenvalues --    0.47884   0.48587   0.48985   0.50729   0.51722

 Mulliken atomic charges:
              1
     1  C   -0.000511
     2  C   -0.029182
     3  C   -0.128072
     4  N   -0.625274
     5  H    0.111637
     6  H    0.109708
     7  H    0.013676
     8  N   -0.606071
     9  C   -0.212526
    10  H    0.089630
    11  H    0.074291
    12  H    0.128205
    13  C   -0.047180
    14  H    0.124059
    15  H    0.081264
    16  C   -0.310481
    17  H    0.128792
    18  H    0.185608
    19  C   -0.298741
    20  H    0.136065
    21  H    0.123477
    22  C   -0.466694
    23  H    0.151983
    24  H    0.124348
    25  H    0.141988
 Sum of Mulliken atomic charges =  -1.00000

 Dipole moment (field-independent basis, Debye):
    X=             -1.2759    Y=             -8.3151    Z=              2.0397  Tot=              8.6562
 Quadrupole moment (field-independent basis, Debye-Ang):
   XX=            -79.9346   YY=            -85.8855   ZZ=            -74.1785
   XY=             -3.9830   XZ=              2.0946   YZ=              4.6137

 Normal termination of Gaussian 09 at Thu Jun 28 09:45:42 2018.
