 Gaussian 09, Revision A.02,
 Gaussian 09:  EM64L-G09RevA.02 11-Jun-2009

 -------------------------------------------------------------------
 #HF/6-31G* SCF=tight Test Pop=MK iop(6/33=2) NoSymm iop(6/42=6) opt
 -------------------------------------------------------------------

 ---------------------
 remark line goes here
 ---------------------
 Symbolic Z-matrix:
 Charge = -1 Multiplicity = 1

 SCF Done:  E(RHF) =  -1821.18693202     A.U. after   14 cycles
 SCF Done:  E(RHF) =  -1821.18693672     A.U. after    8 cycles
 SCF Done:  E(RHF) =  -1821.18693797     A.U. after    8 cycles
 Optimization completed.
    -- Stationary point found.

                          Input orientation:
 ---------------------------------------------------------------------
 Center     Atomic      Atomic             Coordinates (Angstroms)
 Number     Number       Type             X           Y           Z
 ---------------------------------------------------------------------
      1          7           0       -0.328621    0.532422    1.566831
      2         16           0       -1.288029   -0.369414    0.694320
      3         16           0       -0.759797    1.387660    2.809155
      4          8           0       -1.964771   -1.409719    1.411890
      5          8           0       -2.030778    0.349439   -0.297074
      6          8           0        0.081801    2.536723    2.935100
      7          8           0       -2.175440    1.543570    2.965290
      8          6           0        0.006913   -1.229980   -0.245221
      9          6           0       -0.260978    0.355902    4.222601
     10          9           0       -0.572306   -2.070779   -1.080340
     11          9           0        0.738304   -0.398727   -0.949304
     12          9           0        0.799659   -1.922226    0.540145
     13          9           0        1.030810    0.108291    4.196306
     14          9           0       -0.900116   -0.788923    4.237547
     15          9           0       -0.529650    0.991763    5.346756
 ---------------------------------------------------------------------

 Alpha  occ. eigenvalues --  -92.09110 -92.09022 -26.24240 -26.24168 -26.24121
 Alpha  occ. eigenvalues --  -26.23899 -26.23809 -26.23698 -20.43057 -20.42852
 Alpha  occ. eigenvalues --  -20.42819 -20.42767 -15.43572 -11.40504 -11.40004
 Alpha  occ. eigenvalues --   -9.06178  -9.06150  -6.74829  -6.74776  -6.74758
 Alpha  occ. eigenvalues --   -6.74739  -6.74723  -6.74715  -1.64281  -1.63869
 Alpha  occ. eigenvalues --   -1.53896  -1.53823  -1.53467  -1.53461  -1.36371
 Alpha  occ. eigenvalues --   -1.34378  -1.22733  -1.22339  -1.10254  -0.91629
 Alpha  occ. eigenvalues --   -0.88858  -0.81633  -0.76808  -0.73151  -0.72773
 Alpha  occ. eigenvalues --   -0.72420  -0.72301  -0.70821  -0.62414  -0.60896
 Alpha  occ. eigenvalues --   -0.60787  -0.60410  -0.60278  -0.57772  -0.56039
 Alpha  occ. eigenvalues --   -0.55740  -0.55599  -0.55406  -0.54805  -0.54415
 Alpha  occ. eigenvalues --   -0.54054  -0.53679  -0.52083  -0.51599  -0.45558
 Alpha  occ. eigenvalues --   -0.39798  -0.39273  -0.38390  -0.36175  -0.35797
 Alpha  occ. eigenvalues --   -0.35108  -0.33177  -0.30985  -0.28584
 Alpha virt. eigenvalues --    0.36269   0.37202   0.38823   0.41683   0.42281
 Alpha virt. eigenvalues --    0.43011   0.44440   0.50882   0.54021   0.54366
 Alpha virt. eigenvalues --    0.56527   0.58908   0.59579   0.60810   0.63591

 Mulliken atomic charges:
              1
     1  N   -0.952393
     2  S    1.538597
     3  S    1.526449
     4  O   -0.684664
     5  O   -0.671491
     6  O   -0.668516
     7  O   -0.688135
     8  C    0.836441
     9  C    0.830989
    10  F   -0.355594
    11  F   -0.338802
    12  F   -0.342011
    13  F   -0.345252
    14  F   -0.333444
    15  F   -0.352174
 Sum of Mulliken atomic charges =  -1.00000

 Dipole moment (field-independent basis, Debye):
    X=              6.0877    Y=             -3.3017    Z=             -8.3306  Tot=             10.8333
 Quadrupole moment (field-independent basis, Debye-Ang):
   XX=           -114.4882   YY=           -113.0726   ZZ=           -124.1265
   XY=             -0.1355   XZ=              7.7944   YZ=            -11.5267

 1\1\GINC-N0631\FOpt\RHF\6-31G(d)\C2F6N1O4S2(1-)\WAB665\12-Apr-2018\0\\
 #HF/6-31G* SCF=tight Test Pop=MK iop(6/33=2) NoSymm iop(6/42=6) opt\\r
 emark line goes here\\-1,1\N,-0.3286205234,0.5324219602,1.5668310121\S
 ,-1.2880290283,-0.3694135696,0.6943196971\S,-0.7597974942,1.3876597033
 ,2.809154515\O,-1.9647707071,-1.4097188996,1.4118903187\O,-2.030777813
 7,0.3494390885,-0.2970742728\O,0.0818013046,2.5367225174,2.9350997565\
 O,-2.1754403143,1.5435697786,2.965290004\C,0.0069127103,-1.2299804644,
 -0.2452209149\C,-0.2609779266,0.3559017638,4.222600854\F,-0.5723059025

 Normal termination of Gaussian 09 at Thu Apr 12 07:12:55 2018.
